Formula,Energy_Above_Hull,Formation_Energy,Volume,Density,Band_Gap,Is_Metal,Magnetic_Ordering,Total_Magnetization
PuPtO3,0.8616949345000041,-1.523519267,66.65422143645642,12.134550602268721,0,1,1,5.1981661
PuIrO3,1.396932767500001,-1.077175329,70.66977267988912,11.377682787854042,0,1,0,0.0073069
EuPtO3,0.411219744,-1.74320679,67.25453921150796,9.75383455009428,0,1,1,6.4267308
EuReO3,0.254660152346152,-2.352689649,64.0656384268225,10.009250803769334,0,1,1,6.6650171
NpBO3,0.843248484979165,-2.262327973,45.70062729266607,10.748271127965891,0,1,1,3.9201056
NpTiO3,0.17949956,-3.144405459,60.159657548892305,9.187812747477974,0,1,1,4.2813682
NpTcO3,0.684869141750006,-2.040862776,62.79440236587778,10.128028129511602,0,1,1,2.4492994
EuOsO3,0.28726596400000404,-2.039850706,63.46142186546037,10.209815231625683,0,1,1,5.7933101
NbTlO3,0.090674097249999,-2.362471506,69.35312692633802,8.267313088456405,0.1116,0,0,0.0005009999999990001
SiPbO3,0.42395193916669605,-2.171974545,52.65754671539653,8.93326180430379,1.184799999999999,0,0,0.0006146
SnPbO3,0.11675427349999601,-1.760990872,70.32588763341295,8.828742790401577,1.0389,0,0,0.0012709
YOsO3,0.734620989874997,-1.846845363,62.30532592089454,8.718658670203752,0,1,0,0.012978199999999001
SmPuO3,0.733932247125007,-2.849570498,82.5192836183423,8.90159294072665,0,1,1,4.8867867
PbAuO3,0.329485498333334,-0.602920519,71.41118537597386,10.514280914279322,0,1,0,0.0006575
CsIrO3,0.217758143499997,-1.048420377,68.60262261525105,9.031453833916114,0,1,1,1.076199
BOsO3,1.7791229256666652,-0.224435621,39.56185275227554,10.45298164634174,0,1,0,0.0104592
BPbO3,1.079543921428557,-1.063800783,45.34560992453003,9.741156187118827,0,1,0,2.13e-05
BaHfO3,0,-3.786714651,72.50319461578196,8.332451498508037,3.5394,0,0,0